Random packing of 10 x 'monomer.lmps'

320 atoms
320 bonds
480 angles
640 dihedrals
160 impropers

6 atom types
12 bond types
24 angle types
34 dihedral types
17 improper types

0.000000 25.000000 xlo xhi
0.000000 25.000000 ylo yhi
0.000000 25.000000 zlo zhi

Masses

 1 12.011150 # cp
 2 12.011150 # Lc1
 3 12.011150 # c2
 4 1.007970 # hc
 5 12.011150 # c1
 6 12.011150 # Lc2

Pair Coeffs

 1 0.064000 4.010000 # cp
 2 0.054000 4.010000 # Lc1
 3 0.054000 4.010000 # c2
 4 0.020000 2.995000 # hc
 5 0.054000 4.010000 # c1
 6 0.054000 4.010000 # Lc2

Bond Coeffs

 1 1.417000 470.836100 -627.624521 1327.616551 # cp,cp
 2 1.501000 321.902100 -521.835494 572.148793 # Lc1,cp
 3 1.530000 299.670000 -501.767448 679.801395 # Lc1,c2
 4 1.098200 372.825100 -803.438090 894.332850 # cp,hc
 5 1.101000 345.000000 -691.897500 844.594500 # Lc1,hc
 6 1.101000 345.000000 -691.897500 844.594500 # c2,hc
 7 1.501000 321.902100 -521.835494 572.148793 # c1,cp
 8 1.530000 299.670000 -501.767448 679.801395 # c1,Lc2
 9 1.101000 345.000000 -691.897500 844.594500 # c1,hc
 10 1.101000 345.000000 -691.897500 844.594500 # Lc2,hc
 11 1.530000 299.670000 -501.767448 679.801395 # c1,c2
 12 1.530000 299.670000 -501.767448 679.801395 # Lc1,Lc2

Angle Coeffs

 1 118.900000 61.022600 -34.990359 0.000000 # cp,cp,cp
 2 117.940000 35.155800 -12.469762 0.000000 # cp,cp,hc
 3 120.050000 44.714800 -22.733004 0.000000 # Lc1,cp,cp
 4 108.400000 43.959400 -8.391849 -9.336977 # c2,Lc1,cp
 5 111.000000 44.323400 -9.445317 0.000000 # cp,Lc1,hc
 6 110.770000 41.453000 -10.603677 5.127736 # c2,Lc1,hc
 7 110.770000 41.453000 -10.603677 5.127736 # Lc1,c2,hc
 8 112.670000 39.516000 -7.444814 -9.558920 # c1,c2,Lc1
 9 107.660000 39.641000 -12.922966 -2.429993 # hc,c2,hc
 10 110.770000 41.453000 -10.603677 5.127736 # c1,c2,hc
 11 120.050000 44.714800 -22.733004 0.000000 # c1,cp,cp
 12 108.400000 43.959400 -8.391849 -9.336977 # Lc2,c1,cp
 13 111.000000 44.323400 -9.445317 0.000000 # cp,c1,hc
 14 108.400000 43.959400 -8.391849 -9.336977 # c2,c1,cp
 15 110.770000 41.453000 -10.603677 5.127736 # Lc2,c1,hc
 16 112.670000 39.516000 -7.444814 -9.558920 # c2,c1,Lc2
 17 110.770000 41.453000 -10.603677 5.127736 # c2,c1,hc
 18 110.770000 41.453000 -10.603677 5.127736 # c1,Lc2,hc
 19 107.660000 39.641000 -12.922966 -2.429993 # hc,Lc2,hc
 20 108.400000 43.959400 -8.391849 -9.336977 # Lc2,Lc1,cp
 21 110.770000 41.453000 -10.603677 5.127736 # Lc2,Lc1,hc
 22 110.770000 41.453000 -10.603677 5.127736 # Lc1,Lc2,hc
 23 112.670000 39.516000 -7.444814 -9.558920 # c2,c1,c2
 24 112.670000 39.516000 -7.444814 -9.558920 # c1,c2,c1

BondBond Coeffs

 1 68.285600 1.417000 1.417000 # cp,cp,cp
 2 1.079500 1.417000 1.098200 # cp,cp,hc
 3 12.067600 1.501000 1.417000 # Lc1,cp,cp
 4 0.000000 1.530000 1.501000 # c2,Lc1,cp
 5 2.916800 1.501000 1.101000 # cp,Lc1,hc
 6 3.387200 1.530000 1.101000 # c2,Lc1,hc
 7 3.387200 1.530000 1.101000 # Lc1,c2,hc
 8 0.000000 1.530000 1.530000 # c1,c2,Lc1
 9 5.331600 1.101000 1.101000 # hc,c2,hc
 10 3.387200 1.530000 1.101000 # c1,c2,hc
 11 12.067600 1.501000 1.417000 # c1,cp,cp
 12 0.000000 1.530000 1.501000 # Lc2,c1,cp
 13 2.916800 1.501000 1.101000 # cp,c1,hc
 14 0.000000 1.530000 1.501000 # c2,c1,cp
 15 3.387200 1.530000 1.101000 # Lc2,c1,hc
 16 0.000000 1.530000 1.530000 # c2,c1,Lc2
 17 3.387200 1.530000 1.101000 # c1,c2,hc
 18 3.387200 1.530000 1.101000 # c1,Lc2,hc
 19 5.331600 1.101000 1.101000 # hc,Lc2,hc
 20 0.000000 1.530000 1.501000 # Lc2,Lc1,cp
 21 3.387200 1.530000 1.101000 # Lc2,Lc1,hc
 22 3.387200 1.530000 1.101000 # Lc1,Lc2,hc
 23 0.000000 1.530000 1.530000 # c2,c1,c2
 24 0.000000 1.530000 1.530000 # c1,c2,c1

BondAngle Coeffs

 1 28.870800 28.870800 1.417000 1.417000 # cp,cp,cp
 2 20.003300 24.218300 1.417000 1.098200 # cp,cp,hc
 3 47.057900 31.077100 1.501000 1.417000 # Lc1,cp,cp
 4 0.000000 0.000000 1.530000 1.501000 # c2,Lc1,cp
 5 26.460800 11.771700 1.501000 1.101000 # cp,Lc1,hc
 6 20.754000 11.421000 1.530000 1.101000 # c2,Lc1,hc
 7 20.754000 11.421000 1.530000 1.101000 # Lc1,c2,hc
 8 8.016000 8.016000 1.530000 1.530000 # c1,c2,Lc1
 9 18.103000 18.103000 1.101000 1.101000 # hc,c2,hc
 10 20.754000 11.421000 1.530000 1.101000 # c1,c2,hc
 11 47.057900 31.077100 1.501000 1.417000 # c1,cp,cp
 12 0.000000 0.000000 1.530000 1.501000 # Lc2,c1,cp
 13 26.460800 11.771700 1.501000 1.101000 # cp,c1,hc
 14 0.000000 0.000000 1.530000 1.501000 # c2,c1,cp
 15 20.754000 11.421000 1.530000 1.101000 # Lc2,c1,hc
 16 8.016000 8.016000 1.530000 1.530000 # c2,c1,Lc2
 17 20.754000 11.421000 1.530000 1.101000 # c2,c1,hc
 18 20.754000 11.421000 1.530000 1.101000 # c1,Lc2,hc
 19 18.103000 18.103000 1.101000 1.101000 # hc,Lc2,hc
 20 0.000000 0.000000 1.530000 1.501000 # Lc2,Lc1,cp
 21 20.754000 11.421000 1.530000 1.101000 # Lc2,Lc1,hc
 22 20.754000 11.421000 1.530000 1.101000 # Lc1,Lc2,hc
 23 8.016000 8.016000 1.530000 1.530000 # c2,c1,c2
 24 8.016000 8.016000 1.530000 1.530000 # c1,c2,c1

Dihedral Coeffs

 1 8.366700 0.000000 1.193200 0.000000 0.000000 0.000000 # cp,cp,cp,cp
 2 0.000000 0.000000 3.966100 0.000000 0.000000 0.000000 # cp,cp,cp,hc
 3 0.000000 0.000000 1.876900 0.000000 0.000000 0.000000 # hc,cp,cp,hc
 4 0.000000 0.000000 4.407200 0.000000 0.000000 0.000000 # Lc1,cp,cp,cp
 5 0.000000 0.000000 1.559000 0.000000 0.000000 0.000000 # Lc1,cp,cp,hc
 6 -0.280200 0.000000 -0.067800 0.000000 -0.012200 0.000000 # c2,Lc1,cp,cp
 7 -0.280100 0.000000 -0.067800 0.000000 -0.012200 0.000000 # hc,Lc1,cp,cp
 8 -0.022800 0.000000 0.028000 0.000000 -0.186300 0.000000 # cp,Lc1,c2,hc
 9 0.000000 0.000000 0.000000 0.000000 0.158000 180.000000 # c1,c2,Lc1,cp
 10 -0.143200 0.000000 0.061700 0.000000 -0.108300 0.000000 # hc,Lc1,c2,hc
 11 0.000000 0.000000 0.031600 0.000000 -0.168100 0.000000 # c1,c2,Lc1,hc
 12 0.000000 0.000000 4.407200 0.000000 0.000000 0.000000 # c1,cp,cp,cp
 13 0.000000 0.000000 1.559000 0.000000 0.000000 0.000000 # c1,cp,cp,hc
 14 -0.280200 0.000000 -0.067800 0.000000 -0.012200 0.000000 # Lc2,c1,cp,cp
 15 -0.280100 0.000000 -0.067800 0.000000 -0.012200 0.000000 # hc,c1,cp,cp
 16 -0.280200 0.000000 -0.067800 0.000000 -0.012200 0.000000 # c2,c1,cp,cp
 17 -0.022800 0.000000 0.028000 0.000000 -0.186300 0.000000 # cp,c1,Lc2,hc
 18 -0.143200 0.000000 0.061700 0.000000 -0.108300 0.000000 # hc,c1,Lc2,hc
 19 0.000000 0.000000 0.031600 0.000000 -0.168100 0.000000 # c2,c1,Lc2,hc
 20 0.000000 0.000000 0.000000 0.000000 0.158000 180.000000 # Lc1,c2,c1,cp
 21 -0.022800 0.000000 0.028000 0.000000 -0.186300 0.000000 # cp,c1,c2,hc
 22 0.000000 0.000000 0.051400 0.000000 -0.143000 0.000000 # Lc2,c1,c2,Lc1
 23 0.000000 0.000000 0.031600 0.000000 -0.168100 0.000000 # Lc2,c1,c2,hc
 24 0.000000 0.000000 0.031600 0.000000 -0.168100 0.000000 # Lc1,c2,c1,hc
 25 -0.143200 0.000000 0.061700 0.000000 -0.108300 0.000000 # hc,c1,c2,hc
 26 -0.280200 0.000000 -0.067800 0.000000 -0.012200 0.000000 # Lc2,Lc1,cp,cp
 27 -0.022800 0.000000 0.028000 0.000000 -0.186300 0.000000 # cp,Lc1,Lc2,hc
 28 -0.143200 0.000000 0.061700 0.000000 -0.108300 0.000000 # hc,Lc1,Lc2,hc
 29 0.000000 0.000000 0.000000 0.000000 0.158000 180.000000 # c1,c2,c1,cp
 30 0.000000 0.000000 0.031600 0.000000 -0.168100 0.000000 # c1,c2,c1,hc
 31 0.000000 0.000000 0.031600 0.000000 -0.168100 0.000000 # c2,c1,c2,hc
 32 0.000000 0.000000 0.051400 0.000000 -0.143000 0.000000 # c2,c1,c2,c1
 33 0.000000 0.000000 0.051400 0.000000 -0.143000 0.000000 # c2,c1,c2,Lc1
 34 0.000000 0.000000 0.051400 0.000000 -0.143000 0.000000 # Lc2,c1,c2,c1

MiddleBondTorsion Coeffs

 1 27.598900 -2.312000 0.000000 1.417000 # cp,cp,cp,cp
 2 0.000000 -1.152100 0.000000 1.417000 # cp,cp,cp,hc
 3 0.000000 4.822800 0.000000 1.417000 # hc,cp,cp,hc
 4 0.000000 9.179200 0.000000 1.417000 # Lc1,cp,cp,cp
 5 0.000000 3.942100 0.000000 1.417000 # Lc1,cp,cp,hc
 6 0.000000 0.000000 0.000000 1.501000 # c2,Lc1,cp,cp
 7 -5.567900 1.408300 0.301000 1.501000 # hc,Lc1,cp,cp
 8 0.000000 0.000000 0.000000 1.530000 # cp,Lc1,c2,hc
 9 0.000000 0.000000 0.000000 1.530000 # c1,c2,Lc1,cp
 10 -14.261000 -0.532200 -0.486400 1.530000 # hc,Lc1,c2,hc
 11 -14.879000 -3.658100 -0.313800 1.530000 # c1,c2,Lc1,hc
 12 0.000000 9.179200 0.000000 1.417000 # c1,cp,cp,cp
 13 0.000000 3.942100 0.000000 1.417000 # c1,cp,cp,hc
 14 0.000000 0.000000 0.000000 1.501000 # Lc2,c1,cp,cp
 15 -5.567900 1.408300 0.301000 1.501000 # hc,c1,cp,cp
 16 0.000000 0.000000 0.000000 1.501000 # c2,c1,cp,cp
 17 0.000000 0.000000 0.000000 1.530000 # cp,c1,Lc2,hc
 18 -14.261000 -0.532200 -0.486400 1.530000 # hc,c1,Lc2,hc
 19 -14.879000 -3.658100 -0.313800 1.530000 # c2,c1,Lc2,hc
 20 0.000000 0.000000 0.000000 1.530000 # Lc1,c2,c1,cp
 21 0.000000 0.000000 0.000000 1.530000 # cp,c1,c2,hc
 22 -17.787000 -7.187700 0.000000 1.530000 # Lc2,c1,c2,Lc1
 23 -14.879000 -3.658100 -0.313800 1.530000 # Lc2,c1,c2,hc
 24 -14.879000 -3.658100 -0.313800 1.530000 # Lc1,c2,c1,hc
 25 -14.261000 -0.532200 -0.486400 1.530000 # hc,c1,c2,hc
 26 0.000000 0.000000 0.000000 1.501000 # Lc2,Lc1,cp,cp
 27 0.000000 0.000000 0.000000 1.530000 # cp,Lc1,Lc2,hc
 28 -14.261000 -0.532200 -0.486400 1.530000 # hc,Lc1,Lc2,hc
 29 0.000000 0.000000 0.000000 1.530000 # c1,c2,c1,cp
 30 -14.879000 -3.658100 -0.313800 1.530000 # c1,c2,c1,hc
 31 -14.879000 -3.658100 -0.313800 1.530000 # c2,c1,c2,hc
 32 -17.787000 -7.187700 0.000000 1.530000 # c2,c1,c2,c1
 33 -17.787000 -7.187700 0.000000 1.530000 # c2,c1,c2,Lc1
 34 -17.787000 -7.187700 0.000000 1.530000 # Lc2,c1,c2,c1

EndBondTorsion Coeffs

 1 -0.118500 6.320400 0.000000 -0.118500 6.320400 0.000000 1.417000 1.417000 # cp,cp,cp,cp
 2 0.000000 -6.895800 0.000000 0.000000 -0.466900 0.000000 1.417000 1.098200 # cp,cp,cp,hc
 3 0.000000 -0.689000 0.000000 0.000000 -0.689000 0.000000 1.098200 1.098200 # hc,cp,cp,hc
 4 0.000000 0.242100 0.000000 0.000000 -0.691800 0.000000 1.501000 1.417000 # Lc1,cp,cp,cp
 5 0.000000 -1.797000 0.000000 0.000000 -0.487900 0.000000 1.501000 1.098200 # Lc1,cp,cp,hc
 6 0.000000 0.000000 0.000000 0.000000 0.000000 0.000000 1.530000 1.417000 # c2,Lc1,cp,cp
 7 1.399700 0.775600 0.000000 -0.583500 1.122000 0.397800 1.101000 1.417000 # hc,Lc1,cp,cp
 8 0.000000 0.000000 0.000000 0.000000 0.000000 0.000000 1.501000 1.101000 # cp,Lc1,c2,hc
 9 0.000000 0.000000 0.000000 0.000000 0.000000 0.000000 1.530000 1.501000 # c1,c2,Lc1,cp
 10 0.213000 0.312000 0.077700 0.213000 0.312000 0.077700 1.101000 1.101000 # hc,Lc1,c2,hc
 11 0.248600 0.242200 -0.092500 0.081400 0.059100 0.221900 1.530000 1.101000 # c1,c2,Lc1,hc
 12 0.000000 0.242100 0.000000 0.000000 -0.691800 0.000000 1.501000 1.417000 # c1,cp,cp,cp
 13 0.000000 -1.797000 0.000000 0.000000 -0.487900 0.000000 1.501000 1.098200 # c1,cp,cp,hc
 14 0.000000 0.000000 0.000000 0.000000 0.000000 0.000000 1.530000 1.417000 # Lc2,c1,cp,cp
 15 1.399700 0.775600 0.000000 -0.583500 1.122000 0.397800 1.101000 1.417000 # hc,c1,cp,cp
 16 0.000000 0.000000 0.000000 0.000000 0.000000 0.000000 1.530000 1.417000 # c2,c1,cp,cp
 17 0.000000 0.000000 0.000000 0.000000 0.000000 0.000000 1.501000 1.101000 # cp,c1,Lc2,hc
 18 0.213000 0.312000 0.077700 0.213000 0.312000 0.077700 1.101000 1.101000 # hc,c1,Lc2,hc
 19 0.248600 0.242200 -0.092500 0.081400 0.059100 0.221900 1.530000 1.101000 # c2,c1,Lc2,hc
 20 0.000000 0.000000 0.000000 0.000000 0.000000 0.000000 1.530000 1.501000 # Lc1,c2,c1,cp
 21 0.000000 0.000000 0.000000 0.000000 0.000000 0.000000 1.501000 1.101000 # cp,c1,c2,hc
 22 -0.073200 0.000000 0.000000 -0.073200 0.000000 0.000000 1.530000 1.530000 # Lc2,c1,c2,Lc1
 23 0.248600 0.242200 -0.092500 0.081400 0.059100 0.221900 1.530000 1.101000 # Lc2,c1,c2,hc
 24 0.248600 0.242200 -0.092500 0.081400 0.059100 0.221900 1.530000 1.101000 # Lc1,c2,c1,hc
 25 0.213000 0.312000 0.077700 0.213000 0.312000 0.077700 1.101000 1.101000 # hc,c1,c2,hc
 26 0.000000 0.000000 0.000000 0.000000 0.000000 0.000000 1.530000 1.417000 # Lc2,Lc1,cp,cp
 27 0.000000 0.000000 0.000000 0.000000 0.000000 0.000000 1.501000 1.101000 # cp,Lc1,Lc2,hc
 28 0.213000 0.312000 0.077700 0.213000 0.312000 0.077700 1.101000 1.101000 # hc,Lc1,Lc2,hc
 29 0.000000 0.000000 0.000000 0.000000 0.000000 0.000000 1.530000 1.501000 # c1,c2,c1,cp
 30 0.248600 0.242200 -0.092500 0.081400 0.059100 0.221900 1.530000 1.101000 # c1,c2,c1,hc
 31 0.248600 0.242200 -0.092500 0.081400 0.059100 0.221900 1.530000 1.101000 # c2,c1,c2,hc
 32 -0.073200 0.000000 0.000000 -0.073200 0.000000 0.000000 1.530000 1.530000 # c2,c1,c2,c1
 33 -0.073200 0.000000 0.000000 -0.073200 0.000000 0.000000 1.530000 1.530000 # c2,c1,c2,Lc1
 34 -0.073200 0.000000 0.000000 -0.073200 0.000000 0.000000 1.530000 1.530000 # Lc2,c1,c2,c1

AngleTorsion Coeffs

 1 1.976700 1.023900 0.000000 1.976700 1.023900 0.000000 118.900000 118.900000 # cp,cp,cp,cp
 2 0.000000 2.501400 0.000000 0.000000 2.714700 0.000000 118.900000 117.940000 # cp,cp,cp,hc
 3 0.000000 2.450100 0.000000 0.000000 2.450100 0.000000 117.940000 117.940000 # hc,cp,cp,hc
 4 0.000000 -4.468300 0.000000 0.000000 3.898700 0.000000 120.050000 118.900000 # Lc1,cp,cp,cp
 5 0.000000 -0.124200 0.000000 0.000000 3.460100 0.000000 120.050000 117.940000 # Lc1,cp,cp,hc
 6 0.000000 0.000000 0.000000 0.000000 0.000000 0.000000 108.400000 120.050000 # c2,Lc1,cp,cp
 7 4.626600 0.163200 0.046100 0.225100 0.654800 0.123700 111.000000 120.050000 # hc,Lc1,cp,cp
 8 0.000000 0.000000 0.000000 0.000000 0.000000 0.000000 108.400000 110.770000 # cp,Lc1,c2,hc
 9 0.000000 0.000000 0.000000 0.000000 0.000000 0.000000 112.670000 108.400000 # c1,c2,Lc1,cp
 10 -0.808500 0.556900 -0.246600 -0.808500 0.556900 -0.246600 110.770000 110.770000 # hc,Lc1,c2,hc
 11 -0.245400 0.000000 -0.113600 0.311300 0.451600 -0.198800 112.670000 110.770000 # c1,c2,Lc1,hc
 12 0.000000 -4.468300 0.000000 0.000000 3.898700 0.000000 120.050000 118.900000 # c1,cp,cp,cp
 13 0.000000 -0.124200 0.000000 0.000000 3.460100 0.000000 120.050000 117.940000 # c1,cp,cp,hc
 14 0.000000 0.000000 0.000000 0.000000 0.000000 0.000000 108.400000 120.050000 # Lc2,c1,cp,cp
 15 4.626600 0.163200 0.046100 0.225100 0.654800 0.123700 111.000000 120.050000 # hc,c1,cp,cp
 16 0.000000 0.000000 0.000000 0.000000 0.000000 0.000000 108.400000 120.050000 # c2,c1,cp,cp
 17 0.000000 0.000000 0.000000 0.000000 0.000000 0.000000 108.400000 110.770000 # cp,c1,Lc2,hc
 18 -0.808500 0.556900 -0.246600 -0.808500 0.556900 -0.246600 110.770000 110.770000 # hc,c1,Lc2,hc
 19 -0.245400 0.000000 -0.113600 0.311300 0.451600 -0.198800 112.670000 110.770000 # c2,c1,Lc2,hc
 20 0.000000 0.000000 0.000000 0.000000 0.000000 0.000000 112.670000 108.400000 # Lc1,c2,c1,cp
 21 0.000000 0.000000 0.000000 0.000000 0.000000 0.000000 108.400000 110.770000 # cp,c1,c2,hc
 22 0.388600 -0.313900 0.138900 0.388600 -0.313900 0.138900 112.670000 112.670000 # Lc2,c1,c2,Lc1
 23 -0.245400 0.000000 -0.113600 0.311300 0.451600 -0.198800 112.670000 110.770000 # Lc2,c1,c2,hc
 24 -0.245400 0.000000 -0.113600 0.311300 0.451600 -0.198800 112.670000 110.770000 # Lc1,c2,c1,hc
 25 -0.808500 0.556900 -0.246600 -0.808500 0.556900 -0.246600 110.770000 110.770000 # hc,c1,c2,hc
 26 0.000000 0.000000 0.000000 0.000000 0.000000 0.000000 108.400000 120.050000 # Lc2,Lc1,cp,cp
 27 0.000000 0.000000 0.000000 0.000000 0.000000 0.000000 108.400000 110.770000 # cp,Lc1,Lc2,hc
 28 -0.808500 0.556900 -0.246600 -0.808500 0.556900 -0.246600 110.770000 110.770000 # hc,Lc1,Lc2,hc
 29 0.000000 0.000000 0.000000 0.000000 0.000000 0.000000 112.670000 108.400000 # c1,c2,c1,cp
 30 -0.245400 0.000000 -0.113600 0.311300 0.451600 -0.198800 112.670000 110.770000 # c1,c2,c1,hc
 31 -0.245400 0.000000 -0.113600 0.311300 0.451600 -0.198800 112.670000 110.770000 # c2,c1,c2,hc
 32 0.388600 -0.313900 0.138900 0.388600 -0.313900 0.138900 112.670000 112.670000 # c2,c1,c2,c1
 33 0.388600 -0.313900 0.138900 0.388600 -0.313900 0.138900 112.670000 112.670000 # c2,c1,c2,Lc1
 34 0.388600 -0.313900 0.138900 0.388600 -0.313900 0.138900 112.670000 112.670000 # Lc2,c1,c2,c1

AngleAngleTorsion Coeffs

 1 0.000000 118.900000 118.900000 # cp,cp,cp,cp
 2 -4.814100 118.900000 117.940000 # cp,cp,cp,hc
 3 0.359800 117.940000 117.940000 # hc,cp,cp,hc
 4 -14.409700 120.050000 118.900000 # Lc1,cp,cp,cp
 5 4.444400 120.050000 117.940000 # Lc1,cp,cp,hc
 6 0.000000 108.400000 120.050000 # c2,Lc1,cp,cp
 7 -5.888800 111.000000 120.050000 # hc,Lc1,cp,cp
 8 0.000000 108.400000 110.770000 # cp,Lc1,c2,hc
 9 0.000000 112.670000 108.400000 # c1,c2,Lc1,cp
 10 -12.564000 110.770000 110.770000 # hc,Lc1,c2,hc
 11 -16.164000 112.670000 110.770000 # c1,c2,Lc1,hc
 12 -14.409700 120.050000 118.900000 # c1,cp,cp,cp
 13 4.444400 120.050000 117.940000 # c1,cp,cp,hc
 14 0.000000 108.400000 120.050000 # Lc2,c1,cp,cp
 15 -5.888800 111.000000 120.050000 # hc,c1,cp,cp
 16 0.000000 108.400000 120.050000 # c2,c1,cp,cp
 17 0.000000 108.400000 110.770000 # cp,c1,Lc2,hc
 18 -12.564000 110.770000 110.770000 # hc,c1,Lc2,hc
 19 -16.164000 112.670000 110.770000 # c2,c1,Lc2,hc
 20 0.000000 112.670000 108.400000 # Lc1,c2,c1,cp
 21 0.000000 108.400000 110.770000 # cp,c1,c2,hc
 22 -22.045000 112.670000 112.670000 # Lc2,c1,c2,Lc1
 23 -16.164000 112.670000 110.770000 # Lc2,c1,c2,hc
 24 -16.164000 112.670000 110.770000 # Lc1,c2,c1,hc
 25 -12.564000 110.770000 110.770000 # hc,c1,c2,hc
 26 0.000000 108.400000 120.050000 # Lc2,Lc1,cp,cp
 27 0.000000 108.400000 110.770000 # cp,Lc1,Lc2,hc
 28 -12.564000 110.770000 110.770000 # hc,Lc1,Lc2,hc
 29 0.000000 112.670000 108.400000 # c1,c2,c1,cp
 30 -16.164000 112.670000 110.770000 # c1,c2,c1,hc
 31 -16.164000 112.670000 110.770000 # c2,c1,c2,hc
 32 -22.045000 112.670000 112.670000 # c2,c1,c2,c1
 33 -22.045000 112.670000 112.670000 # c2,c1,c2,Lc1
 34 -22.045000 112.670000 112.670000 # Lc2,c1,c2,c1

BondBond13 Coeffs

 1 53.000000 1.417000 1.417000 # cp,cp,cp,cp
 2 -6.274100 1.417000 1.098200 # cp,cp,cp,hc
 3 -1.707700 1.098200 1.098200 # hc,cp,cp,hc
 4 2.508500 1.501000 1.417000 # Lc1,cp,cp,cp
 5 0.874300 1.501000 1.098200 # Lc1,cp,cp,hc
 6 0.000000 1.530000 1.417000 # c2,Lc1,cp,cp
 7 -3.482600 1.101000 1.417000 # hc,Lc1,cp,cp
 8 0.000000 1.501000 1.101000 # cp,Lc1,c2,hc
 9 0.000000 1.530000 1.501000 # c1,c2,Lc1,cp
 10 0.000000 1.101000 1.101000 # hc,Lc1,c2,hc
 11 0.000000 1.530000 1.101000 # c1,c2,Lc1,hc
 12 2.508500 1.501000 1.417000 # c1,cp,cp,cp
 13 0.874300 1.501000 1.098200 # c1,cp,cp,hc
 14 0.000000 1.530000 1.417000 # Lc2,c1,cp,cp
 15 -3.482600 1.101000 1.417000 # hc,c1,cp,cp
 16 0.000000 1.530000 1.417000 # c2,c1,cp,cp
 17 0.000000 1.501000 1.101000 # cp,c1,Lc2,hc
 18 0.000000 1.101000 1.101000 # hc,c1,Lc2,hc
 19 0.000000 1.530000 1.101000 # c2,c1,Lc2,hc
 20 0.000000 1.530000 1.501000 # Lc1,c2,c1,cp
 21 0.000000 1.501000 1.101000 # cp,c1,c2,hc
 22 0.000000 1.530000 1.530000 # Lc2,c1,c2,Lc1
 23 0.000000 1.530000 1.101000 # Lc2,c1,c2,hc
 24 0.000000 1.530000 1.101000 # Lc1,c2,c1,hc
 25 0.000000 1.101000 1.101000 # hc,c1,c2,hc
 26 0.000000 1.530000 1.417000 # Lc2,Lc1,cp,cp
 27 0.000000 1.501000 1.101000 # cp,Lc1,Lc2,hc
 28 0.000000 1.101000 1.101000 # hc,Lc1,Lc2,hc
 29 0.000000 1.530000 1.501000 # c1,c2,c1,cp
 30 0.000000 1.530000 1.101000 # c1,c2,c1,hc
 31 0.000000 1.530000 1.101000 # c2,c1,c2,hc
 32 0.000000 1.530000 1.530000 # c2,c1,c2,c1
 33 0.000000 1.530000 1.530000 # c2,c1,c2,Lc1
 34 0.000000 1.530000 1.530000 # Lc2,c1,c2,c1

Improper Coeffs

 1 4.891200 0.000000 # cp,cp,cp,hc
 2 7.815300 0.000000 # Lc1,cp,cp,cp
 3 0.000000 0.000000 # c2,Lc1,hc,cp
 4 0.000000 0.000000 # hc,c2,hc,Lc1
 5 0.000000 0.000000 # c1,c2,hc,Lc1
 6 0.000000 0.000000 # hc,c2,hc,c1
 7 7.815300 0.000000 # c1,cp,cp,cp
 8 0.000000 0.000000 # Lc2,c1,hc,cp
 9 0.000000 0.000000 # c2,c1,cp,Lc2
 10 0.000000 0.000000 # c2,c1,hc,cp
 11 0.000000 0.000000 # c2,c1,hc,Lc2
 12 0.000000 0.000000 # hc,Lc2,hc,c1
 13 0.000000 0.000000 # Lc2,Lc1,hc,cp
 14 0.000000 0.000000 # hc,Lc2,hc,Lc1
 15 0.000000 0.000000 # c2,c1,cp,c2
 16 0.000000 0.000000 # c2,c1,hc,c2
 17 0.000000 0.000000 # c1,c2,hc,c1

AngleAngle Coeffs

 1 0.000000 0.000000 0.000000 118.900000 117.940000 117.940000 # cp,cp,cp,hc
 2 0.000000 0.000000 0.000000 120.050000 120.050000 118.900000 # Lc1,cp,cp,cp
 3 1.082700 -1.820200 2.040300 110.770000 108.400000 111.000000 # c2,Lc1,hc,cp
 4 0.273800 0.273800 -0.482500 107.660000 110.770000 110.770000 # hc,c2,hc,Lc1
 5 0.118400 -1.319900 -1.319900 110.770000 112.670000 110.770000 # c1,c2,hc,Lc1
 6 0.273800 0.273800 -0.482500 107.660000 110.770000 110.770000 # hc,c2,hc,c1
 7 0.000000 0.000000 0.000000 120.050000 120.050000 118.900000 # c1,cp,cp,cp
 8 1.082700 -1.820200 2.040300 110.770000 108.400000 111.000000 # Lc2,c1,hc,cp
 9 0.000000 0.000000 0.000000 108.400000 112.670000 108.400000 # c2,c1,cp,Lc2
 10 1.082700 -1.820200 2.040300 110.770000 108.400000 111.000000 # c2,c1,hc,cp
 11 0.118400 -1.319900 -1.319900 110.770000 112.670000 110.770000 # c2,c1,hc,Lc2
 12 0.273800 0.273800 -0.482500 107.660000 110.770000 110.770000 # hc,Lc2,hc,c1
 13 1.082700 -1.820200 2.040300 110.770000 108.400000 111.000000 # Lc2,Lc1,hc,cp
 14 0.273800 0.273800 -0.482500 107.660000 110.770000 110.770000 # hc,Lc2,hc,Lc1
 15 0.000000 0.000000 0.000000 108.400000 112.670000 108.400000 # c2,c1,cp,c2
 16 0.118400 -1.319900 -1.319900 110.770000 112.670000 110.770000 # c2,c1,hc,c2
 17 0.118400 -1.319900 -1.319900 110.770000 112.670000 110.770000 # c1,c2,hc,c1

Atoms

 1 1 1 0.000000 11.3980376001576 21.1630248923342 21.6276400794455
 2 1 1 0.000000 11.2782183271427 21.904708364233 20.4547416312274
 3 1 1 0.000000 11.3714483120267 21.3034880445547 19.1955952880416
 4 1 1 0.000000 11.5873121073326 19.9232966672748 19.1498082144896
 5 1 1 0.000000 11.70983269083 19.16710359665 20.3134896536762
 6 1 1 0.000000 11.6159694245515 19.7845852997645 21.5632564830998
 7 1 2 0.000000 11.2396124961911 22.1478751316605 17.9350216052983
 8 1 6 0.000000 12.5314646571995 22.0838060645567 17.0817841107598
 9 1 4 0.000000 11.32274571586 21.663358358848 22.6034100041225
 10 1 4 0.000000 11.1086704236703 22.9895036768139 20.5279117086686
 11 1 4 0.000000 11.6653896874588 19.415195363897 18.177394227417
 12 1 4 0.000000 11.8824181917427 18.0833702341591 20.247580180397
 13 1 4 0.000000 11.7122399062908 19.193252208897 22.4840918998214
 14 1 4 0.000000 11.0879364521325 23.2042012635377 18.2175026423645
 15 1 4 0.000000 12.379545823367 22.6747852338565 16.1601977227746
 16 1 4 0.000000 12.7112652481412 21.0477677246824 16.7439854795642
 17 2 1 0.000000 17.0779486876772 20.3422250605715 21.2844771549817
 18 2 1 0.000000 16.4993124635338 21.2044196538366 20.356069522342
 19 2 1 0.000000 16.1792489404705 20.7796922543086 19.0627128036772
 20 2 1 0.000000 16.4573450226108 19.4513423204228 18.7283900673985
 21 2 1 0.000000 17.0362037961834 18.5763198633109 19.6450431553052
 22 2 1 0.000000 17.3512454765679 19.0181574736118 20.9324975122041
 23 2 2 0.000000 15.5513164465348 21.7525331703391 18.0734211093789
 24 2 6 0.000000 16.4567137260157 21.9487767942837 16.8313481820354
 25 2 4 0.000000 17.320820709704 20.7049129515579 22.2932390123565
 26 2 4 0.000000 16.2940598744861 22.243861614594 20.653245001576
 27 2 4 0.000000 16.2187874660155 19.0809150602975 17.7205577638805
 28 2 4 0.000000 17.2467966049721 17.5373822594148 19.3537250477749
 29 2 4 0.000000 17.8081917597406 18.3326070344774 21.6592027616129
 30 2 4 0.000000 15.4390423988726 22.7400376236895 18.5538949764131
 31 2 4 0.000000 15.9476454822902 22.6274677035808 16.1229094347426
 32 2 4 0.000000 16.5741760487599 20.9914707906692 16.2932225854501
 33 3 1 0.000000 20.9583870215323 7.48196522996933 13.4841026679362
 34 3 1 0.000000 20.1093867052697 8.08425782049152 12.5585844893497
 35 3 1 0.000000 19.8701401542123 7.51328065885043 11.3046493294927
 36 3 1 0.000000 20.5121446122805 6.30787260363344 11.0072546954044
 37 3 1 0.000000 21.3646033938936 5.69274491869858 11.9215444209435
 38 3 1 0.000000 21.5937405079937 6.27825998656041 13.1692140016473
 39 3 2 0.000000 18.9386714096446 8.20340387243845 10.3169691318613
 40 3 6 0.000000 19.688170754661 8.5864485425013 9.01599696232634
 41 3 4 0.000000 21.1292649965002 7.95531943325407 14.4612750720505
 42 3 4 0.000000 19.6204342939879 9.03308850914076 12.8260299712354
 43 3 4 0.000000 20.3477092318185 5.82844357482924 10.0310575753209
 44 3 4 0.000000 21.8587718260248 4.74628304370347 11.6595992079031
 45 3 4 0.000000 22.2652771708763 5.7978066408913 13.8938406556822
 46 3 4 0.000000 18.5621512156219 9.14003117127204 10.7637217503234
 47 3 4 0.000000 18.9697465019637 9.04612724575135 8.31298966218386
 48 3 4 0.000000 20.0581016017307 7.67696298630204 8.5102314031181
 49 4 1 0.000000 25.8665665656257 8.79040705905729 10.7914057556357
 50 4 1 0.000000 24.6928897518074 9.34536943179456 10.2867874539052
 51 4 1 0.000000 24.0311442605544 8.78554627496608 9.18938298776433
 52 4 1 0.000000 24.5866744723826 7.64054265314391 8.61147680203065
 53 4 1 0.000000 25.7600836438905 7.07330554403786 9.10376497173949
 54 4 1 0.000000 26.4091960284007 7.64697335169284 10.1999259152554
 55 4 2 0.000000 22.752157919621 9.423029718346 8.66286088910831
 56 4 6 0.000000 22.9242236189139 9.89193930107606 7.19605546614971
 57 4 4 0.000000 26.3660964861871 9.25376794666665 11.6539000202796
 58 4 4 0.000000 24.283428799229 10.2471852849585 10.7663199093738
 59 4 4 0.000000 24.0938453775821 7.17160504019846 7.74714526069356
 60 4 4 0.000000 26.176299924937 6.17413342973531 8.62746629241052
 61 4 4 0.000000 27.3349714913332 7.20413502711684 10.5919894819635
 62 4 4 0.000000 22.5154375290075 10.3174280417007 9.2650574848444
 63 4 4 0.000000 21.964735388357 10.3099495086447 6.84065838176499
 64 4 4 0.000000 23.1306850353709 9.02539347591648 6.54315167849484
 65 5 1 0.000000 9.80955938746978 5.75983200757852 10.7556342148317
 66 5 1 0.000000 9.53642921782166 5.34839201557071 12.0580392378221
 67 5 1 0.000000 9.15857203621862 6.25929601100804 13.0495457067073
 68 5 1 0.000000 9.05957261163666 7.60626674408613 12.6896973632215
 69 5 1 0.000000 9.32971367867618 8.03427524088332 11.3916887823881
 70 5 1 0.000000 9.70785916134515 7.11063470259585 10.4139847145158
 71 5 2 0.000000 8.87206405403438 5.77260429465352 14.4639221043503
 72 5 6 0.000000 9.84283802935205 6.41830133741804 15.4845465657264
 73 5 4 0.000000 10.1067383308787 5.02129571358163 9.99775677783895
 74 5 4 0.000000 9.62436998458181 4.28000664525149 12.306434777298
 75 5 4 0.000000 8.764286748197 8.35187960062103 13.4425052618846
 76 5 4 0.000000 9.24680745276583 9.10063356271688 11.1374953483057
 77 5 4 0.000000 9.92246388206386 7.44262073801259 9.38899165071899
 78 5 4 0.000000 9.027241331935 4.68073796771985 14.5126457337484
 79 5 4 0.000000 9.57565449807504 6.07119349096769 16.4993304267953
 80 5 4 0.000000 9.70344148754715 7.5138237133614 15.4990702488081
 81 6 1 0.000000 14.8832548770847 8.20435290687538 11.9109674006437
 82 6 1 0.000000 14.2700712825033 7.48865542632579 12.9366004366567
 83 6 1 0.000000 13.5315777160785 8.12936830067785 13.9364603715524
 84 6 1 0.000000 13.4241803720137 9.52149999303841 13.872759261969
 85 6 1 0.000000 14.0317140602894 10.2521806266974 12.8539347957498
 86 6 1 0.000000 14.7674864577764 9.5958034953282 11.8640769797652
 87 6 2 0.000000 12.8788650308244 7.31359184153429 15.0445630926331
 88 6 6 0.000000 13.4362360077756 7.71208316228058 16.434362794681
 89 6 4 0.000000 15.4594820233583 7.67371484458277 11.1399191965801
 90 6 4 0.000000 14.3753119000986 6.39346865678409 12.9558834027395
 91 6 4 0.000000 12.8506351829469 10.0602532812136 14.6412921665643
 92 6 4 0.000000 13.933176985418 11.3468698443692 12.8304214534325
 93 6 4 0.000000 15.2489935690937 10.1669962266422 11.0586146310077
 94 6 4 0.000000 13.1099986296452 6.2445167710791 14.8952935468599
 95 6 4 0.000000 12.9092250823235 7.12778838890924 17.2105820859016
 96 6 4 0.000000 13.2007760792799 8.76982663533404 16.6477842247357
 97 7 1 0.000000 4.660844865089 14.8481131854874 5.76041144239543
 98 7 1 0.000000 3.82929249867891 15.9019887760091 5.38891621749146
 99 7 1 0.000000 3.9930788737116 16.5695643750344 4.17108040779724
 100 7 1 0.000000 5.0236195804392 16.1411631809256 3.32960542848443
 101 7 1 0.000000 5.86431688168388 15.0890620538812 3.68640370692871
 102 7 1 0.000000 5.68751250863516 14.4344946724295 4.90799809590377
 103 7 2 0.000000 3.06689644017142 17.7205090433058 3.80104160549073
 104 7 6 0.000000 3.8597514640094 19.0391460758562 3.61779761265787
 105 7 4 0.000000 4.50967317464246 14.3436215208227 6.72517290086604
 106 7 4 0.000000 3.02793607093021 16.2131246338753 6.07586859987154
 107 7 4 0.000000 5.18257342414574 16.6416724345949 2.36312926849427
 108 7 4 0.000000 6.66888987477409 14.775150862247 3.00616119331636
 109 7 4 0.000000 6.34775671011352 13.6045513206335 5.19462035938258
 110 7 4 0.000000 2.34491946171781 17.8856655742308 4.61963712124059
 111 7 4 0.000000 3.15873360041005 19.8368309587299 3.31131765623587
 112 7 4 0.000000 4.57668625332552 18.937252109338 2.78387091510859
 113 8 1 0.000000 9.27416623306764 18.0660409812969 6.94997849615259
 114 8 1 0.000000 8.08506019090459 18.7335089340082 6.6659829301931
 115 8 1 0.000000 7.82489659856695 19.2573736606851 5.39575213313818
 116 8 1 0.000000 8.80168959440978 19.0864886146877 4.4107158830053
 117 8 1 0.000000 9.9964637988572 18.4218066443091 4.6784977763469
 118 8 1 0.000000 10.2406451749957 17.9063397529766 5.95391135430546
 119 8 2 0.000000 6.51488137729263 19.9849519115515 5.12389421041595
 120 8 6 0.000000 6.7684452292496 21.4558140556382 4.70763602545958
 121 8 4 0.000000 9.45202667736159 17.6668360385319 7.95850756676657
 122 8 4 0.000000 7.33794770647679 18.8499443427524 7.46544975987066
 123 8 4 0.000000 8.63215758377086 19.4842929880103 3.39934918748821
 124 8 4 0.000000 10.7485166168135 18.3046767334172 3.88521090600527
 125 8 4 0.000000 11.1811873724153 17.3817059876369 6.17075142661652
 126 8 4 0.000000 5.91128794591842 20.0074093921342 6.04790518179874
 127 8 4 0.000000 5.79824378935076 21.9343760654343 4.48104199509645
 128 8 4 0.000000 7.34329463627518 21.4889934056269 3.76516128866412
 129 9 1 0.000000 -1.23721226001059 20.1307095388917 10.7593361367036
 130 9 1 0.000000 -1.5223904581584 20.7701047730403 11.9634909981543
 131 9 1 0.000000 -1.86409683865896 22.1253531942576 12.0098125131023